162
# Step 1
H                 2.877438    6.172261    2.064486
C                 3.416667    5.886009    1.165824
C                 4.764778    5.023065    -1.085271
C                 4.58285    5.140833    1.292233
C                 2.858824    6.147524    -0.090928
C                 3.620828    5.796636    -1.21185
C                 5.219284    4.595605    0.169239
H                 4.944673    4.906622    2.289027
H                 3.265748    6.050764    -2.206444
H                 5.242915    4.658623    -1.98895
C                 6.110636    3.40631    0.265296
C                 7.043214    0.734456    0.112487
C                 5.946782    2.517207    1.334854
C                 6.914462    2.978508    -0.801427
C                 7.35909    1.663861    -0.884654
C                 6.412149    1.212564    1.265187
H                 5.33348    2.798052    2.184652
H                 7.139781    3.658473    -1.617992
H                 7.902712    1.339091    -1.768055
H                 6.156911    0.51704    2.059626
C                 7.043179    -0.734751    -0.112574
C                 6.110471    -3.406564    -0.265345
C                 6.412062    -1.212836    -1.265255
C                 7.35904    -1.664166    0.884562
C                 6.914348    -2.978792    0.801352
C                 5.946634    -2.517458    -1.334904
H                 6.156833    -0.517304    -2.05969
H                 7.9027    -1.339418    1.767947
H                 7.139658    -3.658762    1.617915
H                 5.333296    -2.798273    -2.184685
C                 5.219063    -4.595818    -0.169244
C                 2.858545    -6.147635    0.090999
C                 4.764565    -5.023235    1.085281
C                 4.582591    -5.141054    -1.292216
C                 3.416383    -5.886181    -1.165769
C                 3.620581    -5.796755    1.211898
H                 5.24273    -4.658797    1.988945
H                 4.944414    -4.906899    -2.289022
H                 2.877132    -6.172443    -2.064415
H                 3.265512    -6.050848    2.206505
C                 1.420073    -6.496395    0.226354
C                 -1.420366    -6.496337    0.226346
C                 0.691529    -5.855387    1.235231
C                 0.69625    -7.238346    -0.715878
C                 -0.696568    -7.238316    -0.715883
C                 -0.691802    -5.855361    1.235228
H                 1.209739    -5.247013    1.969205
H                 1.224838    -7.791964    -1.48749
H                 -1.225173    -7.791914    -1.487497
H                 -1.209992    -5.246966    1.969201
H                 1.225173    7.791854    1.487627
C                 0.696568    7.238283    0.715993
C                 -0.691528    5.855429    -1.235175
C                 -0.69625    7.238312    0.715988
C                 1.420365    6.49634    -0.226265
C                 0.691803    5.855403    -1.235172
C                 -1.420072    6.496397    -0.226274
H                 -1.224839    7.791903    1.487619
H                 1.209994    5.24704    -1.96917
H                 -1.209739    5.247086    -1.969176
C                 -2.858545    6.147638    -0.090942
C                 -5.21907    4.595819    0.16923
C                 -3.416398    5.886148    1.165813
C                 -3.620567    5.796786    -1.211861
C                 -4.764551    5.023261    -1.085279
C                 -4.582611    5.141022    1.292225
H                 -2.877156    6.172382    2.064473
H                 -3.265482    6.050901    -2.206456
H                 -5.242703    4.658844    -1.988959
H                 -4.944444    4.906834    2.289019
C                 -6.110477    3.406563    0.265294
C                 -7.04318    0.734751    0.112493
C                 -6.914325    2.978794    -0.801426
C                 -5.946668    2.517455    1.334856
C                 -6.412094    1.212833    1.265192
C                 -7.359014    1.664167    -0.884651
H                 -7.139615    3.658766    -1.617992
H                 -5.333355    2.798272    2.184655
H                 -6.156888    0.5173    2.059633
H                 -7.902651    1.33942    -1.76805
C                 -7.043213    -0.734457    -0.112566
C                 -6.110631    -3.406313    -0.265339
C                 -7.359114    -1.663857    0.884571
C                 -6.412118    -1.212571    -1.265248
C                 -5.946751    -2.517214    -1.334898
C                 -6.914483    -2.978505    0.801361
H                 -7.902757    -1.339083    1.767957
H                 -6.156858    -0.51705    -2.059683
H                 -5.333426    -2.798061    -2.184678
H                 -7.139821    -3.658465    1.617925
C                 -5.219279    -4.595606    -0.169247
C                 -2.858823    -6.147521    0.090987
C                 -4.76479    -5.023038    1.085279
C                 -4.582832    -5.140863    -1.29222
C                 -3.416653    -5.88604    -1.165778
C                 -3.620841    -5.796604    1.211891
H                 -5.24294    -4.658577    1.988943
H                 -4.944644    -4.906682    -2.289024
H                 -2.877416    -6.172317    -2.064427
H                 -3.265775    -6.050711    2.206495
Bq                 0.0    0.0    0.0
C                 -1.80514606    3.02976696    12.26662032
C                 -1.88462852    2.52032275    13.62214831
C                 -0.74864103    2.47991444    14.4153
C                 0.51872582    2.9466541    13.88960392
C                 0.59484819    3.43602192    12.59389774
C                 -0.59412613    3.47883494    11.7649604
C                 -2.68354713    2.23094692    11.43521903
C                 -3.30435515    1.22875508    12.27590976
C                 -2.81165614    1.40571542    13.62717684
C                 -2.56027958    0.30212505    14.42385188
C                 -0.48820277    1.32387498    15.25061411
C                 1.56273375    2.08078114    14.40025982
C                 2.63777198    1.74027457    13.59167643
C                 2.71661184    2.25059934    12.23749443
C                 1.7181145    3.07920131    11.74991796
C                 1.22387822    2.90157734    10.39909405
C                 -0.20468332    3.14958278    10.40698348
C                 -1.04440877    2.38554474    9.61289718
C                 -2.31222295    1.91803299    10.13814185
C                 -3.52837517    -0.04611678    11.78307026
C                 -3.13915646    -0.37576079    10.42598565
C                 -2.54579687    0.58476141    9.62173974
C                 -1.42166473    0.22744048    8.7777577
C                 -0.49312954    1.34065531    8.77361696
C                 0.87139778    1.1017415    8.76932766
C                 1.75066556    1.90007282    9.59849065
C                 2.79774977    1.03555035    10.10378812
C                 3.26920511    1.20599329    11.39642731
C                 0.9412543    1.07742535    15.24139146
C                 2.67657635    -2.22336743    12.57692558
C                 2.30374547    -1.90904937    13.87087894
C                 1.04112543    -2.37957469    14.39834606
C                 0.20332518    -3.14628926    13.60692993
C                 0.59190215    -3.4750411    12.24895527
C                 1.88394182    -2.51586529    10.39132418
C                 2.81379105    -1.40236708    10.38539654
C                 3.30107094    -1.22279665    11.73756952
C                 3.52877753    0.05045415    12.23174369
C                 3.13869299    0.38059849    13.58883056
C                 2.54055776    -0.57818257    14.39040034
C                 0.49174083    -1.33942954    15.24386344
C                 -0.87259295    -1.10219162    15.25082742
C                 -1.75163663    -1.90013109    14.42077212
C                 -1.22613189    -2.89983963    13.61615258
C                 -1.7188309    -3.07679997    12.2648855
C                 -0.5955349    -3.43156446    11.41957476
C                 -0.51966546    -2.944633    10.12385581
C                 0.7479255    -2.47750149    9.59726742
C                 2.56613162    -0.29833002    9.58648917
C                 1.37539593    -0.25657248    8.75888733
C                 0.48684463    -1.32058147    8.76329929
C                 -0.94129927    -1.07386006    8.77297108
C                 -1.56364456    -2.07671553    9.61410499
C                 -2.63714551    -1.73554534    10.4222452
C                 -2.71620948    -2.24626196    11.77731952
C                 -3.26684697    -1.20226471    12.6174898
C                 -2.79257003    -1.03293088    13.90922988
C                 1.42052983    -0.22376673    15.23749942
C                 -1.37197582    0.2581597    15.25099409
C                 1.80314618    -3.02558126    11.74640303
Bq                 -0.00043211    0.00187446    12.00691326
162
# Step 2
H                 2.877438    6.172261    2.064486
C                 3.416667    5.886009    1.165824
C                 4.764778    5.023065    -1.085271
C                 4.58285    5.140833    1.292233
C                 2.858824    6.147524    -0.090928
C                 3.620828    5.796636    -1.21185
C                 5.219284    4.595605    0.169239
H                 4.944673    4.906622    2.289027
H                 3.265748    6.050764    -2.206444
H                 5.242915    4.658623    -1.98895
C                 6.110636    3.40631    0.265296
C                 7.043214    0.734456    0.112487
C                 5.946782    2.517207    1.334854
C                 6.914462    2.978508    -0.801427
C                 7.35909    1.663861    -0.884654
C                 6.412149    1.212564    1.265187
H                 5.33348    2.798052    2.184652
H                 7.139781    3.658473    -1.617992
H                 7.902712    1.339091    -1.768055
H                 6.156911    0.51704    2.059626
C                 7.043179    -0.734751    -0.112574
C                 6.110471    -3.406564    -0.265345
C                 6.412062    -1.212836    -1.265255
C                 7.35904    -1.664166    0.884562
C                 6.914348    -2.978792    0.801352
C                 5.946634    -2.517458    -1.334904
H                 6.156833    -0.517304    -2.05969
H                 7.9027    -1.339418    1.767947
H                 7.139658    -3.658762    1.617915
H                 5.333296    -2.798273    -2.184685
C                 5.219063    -4.595818    -0.169244
C                 2.858545    -6.147635    0.090999
C                 4.764565    -5.023235    1.085281
C                 4.582591    -5.141054    -1.292216
C                 3.416383    -5.886181    -1.165769
C                 3.620581    -5.796755    1.211898
H                 5.24273    -4.658797    1.988945
H                 4.944414    -4.906899    -2.289022
H                 2.877132    -6.172443    -2.064415
H                 3.265512    -6.050848    2.206505
C                 1.420073    -6.496395    0.226354
C                 -1.420366    -6.496337    0.226346
C                 0.691529    -5.855387    1.235231
C                 0.69625    -7.238346    -0.715878
C                 -0.696568    -7.238316    -0.715883
C                 -0.691802    -5.855361    1.235228
H                 1.209739    -5.247013    1.969205
H                 1.224838    -7.791964    -1.48749
H                 -1.225173    -7.791914    -1.487497
H                 -1.209992    -5.246966    1.969201
H                 1.225173    7.791854    1.487627
C                 0.696568    7.238283    0.715993
C                 -0.691528    5.855429    -1.235175
C                 -0.69625    7.238312    0.715988
C                 1.420365    6.49634    -0.226265
C                 0.691803    5.855403    -1.235172
C                 -1.420072    6.496397    -0.226274
H                 -1.224839    7.791903    1.487619
H                 1.209994    5.24704    -1.96917
H                 -1.209739    5.247086    -1.969176
C                 -2.858545    6.147638    -0.090942
C                 -5.21907    4.595819    0.16923
C                 -3.416398    5.886148    1.165813
C                 -3.620567    5.796786    -1.211861
C                 -4.764551    5.023261    -1.085279
C                 -4.582611    5.141022    1.292225
H                 -2.877156    6.172382    2.064473
H                 -3.265482    6.050901    -2.206456
H                 -5.242703    4.658844    -1.988959
H                 -4.944444    4.906834    2.289019
C                 -6.110477    3.406563    0.265294
C                 -7.04318    0.734751    0.112493
C                 -6.914325    2.978794    -0.801426
C                 -5.946668    2.517455    1.334856
C                 -6.412094    1.212833    1.265192
C                 -7.359014    1.664167    -0.884651
H                 -7.139615    3.658766    -1.617992
H                 -5.333355    2.798272    2.184655
H                 -6.156888    0.5173    2.059633
H                 -7.902651    1.33942    -1.76805
C                 -7.043213    -0.734457    -0.112566
C                 -6.110631    -3.406313    -0.265339
C                 -7.359114    -1.663857    0.884571
C                 -6.412118    -1.212571    -1.265248
C                 -5.946751    -2.517214    -1.334898
C                 -6.914483    -2.978505    0.801361
H                 -7.902757    -1.339083    1.767957
H                 -6.156858    -0.51705    -2.059683
H                 -5.333426    -2.798061    -2.184678
H                 -7.139821    -3.658465    1.617925
C                 -5.219279    -4.595606    -0.169247
C                 -2.858823    -6.147521    0.090987
C                 -4.76479    -5.023038    1.085279
C                 -4.582832    -5.140863    -1.29222
C                 -3.416653    -5.88604    -1.165778
C                 -3.620841    -5.796604    1.211891
H                 -5.24294    -4.658577    1.988943
H                 -4.944644    -4.906682    -2.289024
H                 -2.877416    -6.172317    -2.064427
H                 -3.265775    -6.050711    2.206495
Bq                 0.0    0.0    0.0
C                 -1.80509819    3.02955932    10.93662033
C                 -1.88458065    2.52011511    12.29214832
C                 -0.74859316    2.4797068    13.08530001
C                 0.51877369    2.94644646    12.55960393
C                 0.59489606    3.43581428    11.26389775
C                 -0.59407826    3.4786273    10.43496041
C                 -2.68349926    2.23073928    10.10521904
C                 -3.30430728    1.22854744    10.94590977
C                 -2.81160827    1.40550778    12.29717685
C                 -2.56023171    0.30191741    13.09385189
C                 -0.4881549    1.32366734    13.92061412
C                 1.56278162    2.0805735    13.07025983
C                 2.63781985    1.74006693    12.26167644
C                 2.71665971    2.2503917    10.90749444
C                 1.71816237    3.07899367    10.41991797
C                 1.22392609    2.9013697    9.06909406
C                 -0.20463545    3.14937514    9.07698349
C                 -1.0443609    2.3853371    8.28289719
C                 -2.31217508    1.91782535    8.80814186
C                 -3.5283273    -0.04632442    10.45307027
C                 -3.13910859    -0.37596843    9.09598566
C                 -2.545749    0.58455377    8.29173975
C                 -1.42161686    0.22723284    7.44775771
C                 -0.49308167    1.34044767    7.44361697
C                 0.87144565    1.10153386    7.43932767
C                 1.75071343    1.89986518    8.26849066
C                 2.79779764    1.03534271    8.77378813
C                 3.26925298    1.20578565    10.06642732
C                 0.94130217    1.07721771    13.91139147
C                 2.67662422    -2.22357507    11.24692559
C                 2.30379334    -1.90925701    12.54087895
C                 1.0411733    -2.37978233    13.06834607
C                 0.20337305    -3.1464969    12.27692994
C                 0.59195002    -3.47524874    10.91895528
C                 1.88398969    -2.51607293    9.06132419
C                 2.81383892    -1.40257472    9.05539655
C                 3.30111881    -1.22300429    10.40756953
C                 3.5288254    0.05024651    10.9017437
C                 3.13874086    0.38039085    12.25883057
C                 2.54060563    -0.57839021    13.06040035
C                 0.4917887    -1.33963718    13.91386345
C                 -0.87254508    -1.10239926    13.92082743
C                 -1.75158876    -1.90033873    13.09077213
C                 -1.22608402    -2.90004727    12.28615259
C                 -1.71878303    -3.07700761    10.93488551
C                 -0.59548703    -3.4317721    10.08957477
C                 -0.51961759    -2.94484064    8.79385582
C                 0.74797337    -2.47770913    8.26726743
C                 2.56617949    -0.29853766    8.25648918
C                 1.3754438    -0.25678012    7.42888734
C                 0.4868925    -1.32078911    7.4332993
C                 -0.9412514    -1.0740677    7.44297109
C                 -1.56359669    -2.07692317    8.284105
C                 -2.63709764    -1.73575298    9.09224521
C                 -2.71616161    -2.2464696    10.44731953
C                 -3.2667991    -1.20247235    11.28748981
C                 -2.79252216    -1.03313852    12.57922989
C                 1.4205777    -0.22397437    13.90749943
C                 -1.37192795    0.25795206    13.9209941
C                 1.80319405    -3.0257889    10.41640304
Bq                 -0.00038424    0.00166682    10.67691327
162
# Step 3
H                 2.877438    6.172261    2.064486
C                 3.416667    5.886009    1.165824
C                 4.764778    5.023065    -1.085271
C                 4.58285    5.140833    1.292233
C                 2.858824    6.147524    -0.090928
C                 3.620828    5.796636    -1.21185
C                 5.219284    4.595605    0.169239
H                 4.944673    4.906622    2.289027
H                 3.265748    6.050764    -2.206444
H                 5.242915    4.658623    -1.98895
C                 6.110636    3.40631    0.265296
C                 7.043214    0.734456    0.112487
C                 5.946782    2.517207    1.334854
C                 6.914462    2.978508    -0.801427
C                 7.35909    1.663861    -0.884654
C                 6.412149    1.212564    1.265187
H                 5.33348    2.798052    2.184652
H                 7.139781    3.658473    -1.617992
H                 7.902712    1.339091    -1.768055
H                 6.156911    0.51704    2.059626
C                 7.043179    -0.734751    -0.112574
C                 6.110471    -3.406564    -0.265345
C                 6.412062    -1.212836    -1.265255
C                 7.35904    -1.664166    0.884562
C                 6.914348    -2.978792    0.801352
C                 5.946634    -2.517458    -1.334904
H                 6.156833    -0.517304    -2.05969
H                 7.9027    -1.339418    1.767947
H                 7.139658    -3.658762    1.617915
H                 5.333296    -2.798273    -2.184685
C                 5.219063    -4.595818    -0.169244
C                 2.858545    -6.147635    0.090999
C                 4.764565    -5.023235    1.085281
C                 4.582591    -5.141054    -1.292216
C                 3.416383    -5.886181    -1.165769
C                 3.620581    -5.796755    1.211898
H                 5.24273    -4.658797    1.988945
H                 4.944414    -4.906899    -2.289022
H                 2.877132    -6.172443    -2.064415
H                 3.265512    -6.050848    2.206505
C                 1.420073    -6.496395    0.226354
C                 -1.420366    -6.496337    0.226346
C                 0.691529    -5.855387    1.235231
C                 0.69625    -7.238346    -0.715878
C                 -0.696568    -7.238316    -0.715883
C                 -0.691802    -5.855361    1.235228
H                 1.209739    -5.247013    1.969205
H                 1.224838    -7.791964    -1.48749
H                 -1.225173    -7.791914    -1.487497
H                 -1.209992    -5.246966    1.969201
H                 1.225173    7.791854    1.487627
C                 0.696568    7.238283    0.715993
C                 -0.691528    5.855429    -1.235175
C                 -0.69625    7.238312    0.715988
C                 1.420365    6.49634    -0.226265
C                 0.691803    5.855403    -1.235172
C                 -1.420072    6.496397    -0.226274
H                 -1.224839    7.791903    1.487619
H                 1.209994    5.24704    -1.96917
H                 -1.209739    5.247086    -1.969176
C                 -2.858545    6.147638    -0.090942
C                 -5.21907    4.595819    0.16923
C                 -3.416398    5.886148    1.165813
C                 -3.620567    5.796786    -1.211861
C                 -4.764551    5.023261    -1.085279
C                 -4.582611    5.141022    1.292225
H                 -2.877156    6.172382    2.064473
H                 -3.265482    6.050901    -2.206456
H                 -5.242703    4.658844    -1.988959
H                 -4.944444    4.906834    2.289019
C                 -6.110477    3.406563    0.265294
C                 -7.04318    0.734751    0.112493
C                 -6.914325    2.978794    -0.801426
C                 -5.946668    2.517455    1.334856
C                 -6.412094    1.212833    1.265192
C                 -7.359014    1.664167    -0.884651
H                 -7.139615    3.658766    -1.617992
H                 -5.333355    2.798272    2.184655
H                 -6.156888    0.5173    2.059633
H                 -7.902651    1.33942    -1.76805
C                 -7.043213    -0.734457    -0.112566
C                 -6.110631    -3.406313    -0.265339
C                 -7.359114    -1.663857    0.884571
C                 -6.412118    -1.212571    -1.265248
C                 -5.946751    -2.517214    -1.334898
C                 -6.914483    -2.978505    0.801361
H                 -7.902757    -1.339083    1.767957
H                 -6.156858    -0.51705    -2.059683
H                 -5.333426    -2.798061    -2.184678
H                 -7.139821    -3.658465    1.617925
C                 -5.219279    -4.595606    -0.169247
C                 -2.858823    -6.147521    0.090987
C                 -4.76479    -5.023038    1.085279
C                 -4.582832    -5.140863    -1.29222
C                 -3.416653    -5.88604    -1.165778
C                 -3.620841    -5.796604    1.211891
H                 -5.24294    -4.658577    1.988943
H                 -4.944644    -4.906682    -2.289024
H                 -2.877416    -6.172317    -2.064427
H                 -3.265775    -6.050711    2.206495
Bq                 0.0    0.0    0.0
C                 -1.80505033    3.02935169    9.60662035
C                 -1.88453279    2.51990748    10.96214834
C                 -0.7485453    2.47949917    11.75530003
C                 0.51882155    2.94623883    11.22960395
C                 0.59494392    3.43560665    9.93389777
C                 -0.5940304    3.47841967    9.10496043
C                 -2.6834514    2.23053165    8.77521906
C                 -3.30425942    1.22833981    9.61590979
C                 -2.81156041    1.40530015    10.96717687
C                 -2.56018385    0.30170978    11.76385191
C                 -0.48810704    1.32345971    12.59061414
C                 1.56282948    2.08036587    11.74025985
C                 2.63786771    1.7398593    10.93167646
C                 2.71670757    2.25018407    9.57749446
C                 1.71821023    3.07878604    9.08991799
C                 1.22397395    2.90116207    7.73909408
C                 -0.20458759    3.14916751    7.74698351
C                 -1.04431304    2.38512947    6.95289721
C                 -2.31212722    1.91761772    7.47814188
C                 -3.52827944    -0.04653205    9.12307029
C                 -3.13906073    -0.37617606    7.76598568
C                 -2.54570114    0.58434614    6.96173977
C                 -1.421569    0.22702521    6.11775773
C                 -0.49303381    1.34024004    6.11361699
C                 0.87149351    1.10132623    6.10932769
C                 1.75076129    1.89965755    6.93849068
C                 2.7978455    1.03513508    7.44378815
C                 3.26930084    1.20557802    8.73642734
C                 0.94135003    1.07701008    12.58139149
C                 2.67667208    -2.2237827    9.91692561
C                 2.3038412    -1.90946464    11.21087897
C                 1.04122116    -2.37998996    11.73834609
C                 0.20342091    -3.14670453    10.94692996
C                 0.59199788    -3.47545637    9.5889553
C                 1.88403755    -2.51628056    7.73132421
C                 2.81388678    -1.40278235    7.72539657
C                 3.30116667    -1.22321192    9.07756955
C                 3.52887326    0.05003888    9.57174372
C                 3.13878872    0.38018322    10.92883059
C                 2.54065349    -0.57859784    11.73040037
C                 0.49183656    -1.33984481    12.58386347
C                 -0.87249722    -1.10260689    12.59082745
C                 -1.7515409    -1.90054636    11.76077215
C                 -1.22603616    -2.9002549    10.95615261
C                 -1.71873517    -3.07721524    9.60488553
C                 -0.59543917    -3.43197973    8.75957479
C                 -0.51956973    -2.94504827    7.46385584
C                 0.74802123    -2.47791676    6.93726745
C                 2.56622735    -0.29874529    6.9264892
C                 1.37549166    -0.25698775    6.09888736
C                 0.48694036    -1.32099674    6.10329932
C                 -0.94120354    -1.07427533    6.11297111
C                 -1.56354883    -2.0771308    6.95410502
C                 -2.63704978    -1.73596061    7.76224523
C                 -2.71611375    -2.24667723    9.11731955
C                 -3.26675124    -1.20267998    9.95748983
C                 -2.7924743    -1.03334615    11.24922991
C                 1.42062556    -0.224182    12.57749945
C                 -1.37188009    0.25774443    12.59099412
C                 1.80324191    -3.02599653    9.08640306
Bq                 -0.00033638    0.00145919    9.34691329
162
# Step 4
H                 2.877438    6.172261    2.064486
C                 3.416667    5.886009    1.165824
C                 4.764778    5.023065    -1.085271
C                 4.58285    5.140833    1.292233
C                 2.858824    6.147524    -0.090928
C                 3.620828    5.796636    -1.21185
C                 5.219284    4.595605    0.169239
H                 4.944673    4.906622    2.289027
H                 3.265748    6.050764    -2.206444
H                 5.242915    4.658623    -1.98895
C                 6.110636    3.40631    0.265296
C                 7.043214    0.734456    0.112487
C                 5.946782    2.517207    1.334854
C                 6.914462    2.978508    -0.801427
C                 7.35909    1.663861    -0.884654
C                 6.412149    1.212564    1.265187
H                 5.33348    2.798052    2.184652
H                 7.139781    3.658473    -1.617992
H                 7.902712    1.339091    -1.768055
H                 6.156911    0.51704    2.059626
C                 7.043179    -0.734751    -0.112574
C                 6.110471    -3.406564    -0.265345
C                 6.412062    -1.212836    -1.265255
C                 7.35904    -1.664166    0.884562
C                 6.914348    -2.978792    0.801352
C                 5.946634    -2.517458    -1.334904
H                 6.156833    -0.517304    -2.05969
H                 7.9027    -1.339418    1.767947
H                 7.139658    -3.658762    1.617915
H                 5.333296    -2.798273    -2.184685
C                 5.219063    -4.595818    -0.169244
C                 2.858545    -6.147635    0.090999
C                 4.764565    -5.023235    1.085281
C                 4.582591    -5.141054    -1.292216
C                 3.416383    -5.886181    -1.165769
C                 3.620581    -5.796755    1.211898
H                 5.24273    -4.658797    1.988945
H                 4.944414    -4.906899    -2.289022
H                 2.877132    -6.172443    -2.064415
H                 3.265512    -6.050848    2.206505
C                 1.420073    -6.496395    0.226354
C                 -1.420366    -6.496337    0.226346
C                 0.691529    -5.855387    1.235231
C                 0.69625    -7.238346    -0.715878
C                 -0.696568    -7.238316    -0.715883
C                 -0.691802    -5.855361    1.235228
H                 1.209739    -5.247013    1.969205
H                 1.224838    -7.791964    -1.48749
H                 -1.225173    -7.791914    -1.487497
H                 -1.209992    -5.246966    1.969201
H                 1.225173    7.791854    1.487627
C                 0.696568    7.238283    0.715993
C                 -0.691528    5.855429    -1.235175
C                 -0.69625    7.238312    0.715988
C                 1.420365    6.49634    -0.226265
C                 0.691803    5.855403    -1.235172
C                 -1.420072    6.496397    -0.226274
H                 -1.224839    7.791903    1.487619
H                 1.209994    5.24704    -1.96917
H                 -1.209739    5.247086    -1.969176
C                 -2.858545    6.147638    -0.090942
C                 -5.21907    4.595819    0.16923
C                 -3.416398    5.886148    1.165813
C                 -3.620567    5.796786    -1.211861
C                 -4.764551    5.023261    -1.085279
C                 -4.582611    5.141022    1.292225
H                 -2.877156    6.172382    2.064473